Title: * spicenetlist
Date: Sun Feb 24 17:57:09  2019
Plotname: DC transfer characteristic
Flags: real
No. Variables: 6
No. Points: 501
Variables:
	0	v-sweep	voltage
	1	v(vdd)	voltage
	2	v(vcc)	voltage
	3	v(fb)	voltage
	4	i(i(v_v2))	current
	5	i(i(v_v1))	current
Values:
 0	0.000000000000000e+00
	0.000000000000000e+00
	6.000000000000000e+00
	7.899159663865545e-01
	1.680672268907563e-05
	-6.946778711484593e-05

 1	6.000000000000000e-03
	6.000000000000000e-03
	6.000000000000000e+00
	7.911764705882351e-01
	1.670588235294117e-05
	-6.945098039215686e-05

 2	1.200000000000000e-02
	1.200000000000000e-02
	6.000000000000000e+00
	7.924369747899157e-01
	1.660504201680672e-05
	-6.943417366946778e-05

 3	1.800000000000000e-02
	1.800000000000000e-02
	6.000000000000000e+00
	7.936974789915964e-01
	1.650420168067226e-05
	-6.941736694677871e-05

 4	2.400000000000000e-02
	2.400000000000000e-02
	6.000000000000000e+00
	7.949579831932772e-01
	1.640336134453781e-05
	-6.940056022408963e-05

 5	3.000000000000000e-02
	3.000000000000000e-02
	6.000000000000000e+00
	7.962184873949578e-01
	1.630252100840336e-05
	-6.938375350140055e-05

 6	3.600000000000000e-02
	3.600000000000000e-02
	6.000000000000000e+00
	7.974789915966384e-01
	1.620168067226890e-05
	-6.936694677871149e-05

 7	4.200000000000000e-02
	4.200000000000000e-02
	6.000000000000000e+00
	7.987394957983192e-01
	1.610084033613445e-05
	-6.935014005602241e-05

 8	4.799999999999999e-02
	4.799999999999999e-02
	6.000000000000000e+00
	7.999999999999998e-01
	1.600000000000000e-05
	-6.933333333333333e-05

 9	5.399999999999999e-02
	5.399999999999999e-02
	6.000000000000000e+00
	8.012605042016805e-01
	1.589915966386554e-05
	-6.931652661064425e-05

 10	5.999999999999999e-02
	5.999999999999999e-02
	6.000000000000000e+00
	8.025210084033612e-01
	1.579831932773109e-05
	-6.929971988795517e-05

 11	6.599999999999999e-02
	6.599999999999999e-02
	6.000000000000000e+00
	8.037815126050418e-01
	1.569747899159664e-05
	-6.928291316526611e-05

 12	7.199999999999999e-02
	7.199999999999999e-02
	6.000000000000000e+00
	8.050420168067225e-01
	1.559663865546218e-05
	-6.926610644257703e-05

 13	7.800000000000000e-02
	7.800000000000000e-02
	6.000000000000000e+00
	8.063025210084031e-01
	1.549579831932772e-05
	-6.924929971988795e-05

 14	8.400000000000001e-02
	8.400000000000001e-02
	6.000000000000000e+00
	8.075630252100838e-01
	1.539495798319327e-05
	-6.923249299719888e-05

 15	9.000000000000001e-02
	9.000000000000001e-02
	6.000000000000000e+00
	8.088235294117645e-01
	1.529411764705882e-05
	-6.921568627450980e-05

 16	9.600000000000002e-02
	9.600000000000002e-02
	6.000000000000000e+00
	8.100840336134453e-01
	1.519327731092437e-05
	-6.919887955182072e-05

 17	1.020000000000000e-01
	1.020000000000000e-01
	6.000000000000000e+00
	8.113445378151258e-01
	1.509243697478991e-05
	-6.918207282913164e-05

 18	1.080000000000000e-01
	1.080000000000000e-01
	6.000000000000000e+00
	8.126050420168065e-01
	1.499159663865546e-05
	-6.916526610644258e-05

 19	1.140000000000000e-01
	1.140000000000000e-01
	6.000000000000000e+00
	8.138655462184872e-01
	1.489075630252100e-05
	-6.914845938375350e-05

 20	1.200000000000000e-01
	1.200000000000000e-01
	6.000000000000000e+00
	8.151260504201679e-01
	1.478991596638655e-05
	-6.913165266106442e-05

 21	1.260000000000000e-01
	1.260000000000000e-01
	6.000000000000000e+00
	8.163865546218485e-01
	1.468907563025209e-05
	-6.911484593837534e-05

 22	1.320000000000000e-01
	1.320000000000000e-01
	6.000000000000000e+00
	8.176470588235292e-01
	1.458823529411764e-05
	-6.909803921568628e-05

 23	1.380000000000000e-01
	1.380000000000000e-01
	6.000000000000000e+00
	8.189075630252100e-01
	1.448739495798319e-05
	-6.908123249299720e-05

 24	1.440000000000000e-01
	1.440000000000000e-01
	6.000000000000000e+00
	8.201680672268906e-01
	1.438655462184874e-05
	-6.906442577030812e-05

 25	1.500000000000000e-01
	1.500000000000000e-01
	6.000000000000000e+00
	8.214285714285712e-01
	1.428571428571428e-05
	-6.904761904761904e-05

 26	1.560000000000001e-01
	1.560000000000001e-01
	6.000000000000000e+00
	8.226890756302520e-01
	1.418487394957983e-05
	-6.903081232492997e-05

 27	1.620000000000001e-01
	1.620000000000001e-01
	6.000000000000000e+00
	8.239495798319326e-01
	1.408403361344537e-05
	-6.901400560224089e-05

 28	1.680000000000001e-01
	1.680000000000001e-01
	6.000000000000000e+00
	8.252100840336132e-01
	1.398319327731092e-05
	-6.899719887955181e-05

 29	1.740000000000001e-01
	1.740000000000001e-01
	6.000000000000000e+00
	8.264705882352940e-01
	1.388235294117647e-05
	-6.898039215686274e-05

 30	1.800000000000001e-01
	1.800000000000001e-01
	6.000000000000000e+00
	8.277310924369746e-01
	1.378151260504201e-05
	-6.896358543417367e-05

 31	1.860000000000001e-01
	1.860000000000001e-01
	6.000000000000000e+00
	8.289915966386553e-01
	1.368067226890756e-05
	-6.894677871148459e-05

 32	1.920000000000001e-01
	1.920000000000001e-01
	6.000000000000000e+00
	8.302521008403358e-01
	1.357983193277310e-05
	-6.892997198879551e-05

 33	1.980000000000001e-01
	1.980000000000001e-01
	6.000000000000000e+00
	8.315126050420166e-01
	1.347899159663865e-05
	-6.891316526610643e-05

 34	2.040000000000001e-01
	2.040000000000001e-01
	6.000000000000000e+00
	8.327731092436973e-01
	1.337815126050420e-05
	-6.889635854341737e-05

 35	2.100000000000001e-01
	2.100000000000001e-01
	6.000000000000000e+00
	8.340336134453781e-01
	1.327731092436975e-05
	-6.887955182072829e-05

 36	2.160000000000001e-01
	2.160000000000001e-01
	6.000000000000000e+00
	8.352941176470586e-01
	1.317647058823529e-05
	-6.886274509803921e-05

 37	2.220000000000001e-01
	2.220000000000001e-01
	6.000000000000000e+00
	8.365546218487393e-01
	1.307563025210083e-05
	-6.884593837535013e-05

 38	2.280000000000001e-01
	2.280000000000001e-01
	6.000000000000000e+00
	8.378151260504200e-01
	1.297478991596638e-05
	-6.882913165266106e-05

 39	2.340000000000001e-01
	2.340000000000001e-01
	6.000000000000000e+00
	8.390756302521007e-01
	1.287394957983193e-05
	-6.881232492997198e-05

 40	2.400000000000001e-01
	2.400000000000001e-01
	6.000000000000000e+00
	8.403361344537813e-01
	1.277310924369747e-05
	-6.879551820728291e-05

 41	2.460000000000001e-01
	2.460000000000001e-01
	6.000000000000000e+00
	8.415966386554620e-01
	1.267226890756302e-05
	-6.877871148459384e-05

 42	2.520000000000001e-01
	2.520000000000001e-01
	6.000000000000000e+00
	8.428571428571427e-01
	1.257142857142857e-05
	-6.876190476190476e-05

 43	2.580000000000001e-01
	2.580000000000001e-01
	6.000000000000000e+00
	8.441176470588234e-01
	1.247058823529411e-05
	-6.874509803921568e-05

 44	2.640000000000001e-01
	2.640000000000001e-01
	6.000000000000000e+00
	8.453781512605040e-01
	1.236974789915966e-05
	-6.872829131652660e-05

 45	2.700000000000001e-01
	2.700000000000001e-01
	6.000000000000000e+00
	8.466386554621848e-01
	1.226890756302521e-05
	-6.871148459383752e-05

 46	2.760000000000001e-01
	2.760000000000001e-01
	6.000000000000000e+00
	8.478991596638654e-01
	1.216806722689075e-05
	-6.869467787114846e-05

 47	2.820000000000001e-01
	2.820000000000001e-01
	6.000000000000000e+00
	8.491596638655461e-01
	1.206722689075630e-05
	-6.867787114845938e-05

 48	2.880000000000001e-01
	2.880000000000001e-01
	6.000000000000000e+00
	8.504201680672266e-01
	1.196638655462184e-05
	-6.866106442577030e-05

 49	2.940000000000002e-01
	2.940000000000002e-01
	6.000000000000000e+00
	8.516806722689074e-01
	1.186554621848739e-05
	-6.864425770308123e-05

 50	3.000000000000002e-01
	3.000000000000002e-01
	6.000000000000000e+00
	8.529411764705881e-01
	1.176470588235293e-05
	-6.862745098039216e-05

 51	3.060000000000002e-01
	3.060000000000002e-01
	6.000000000000000e+00
	8.542016806722686e-01
	1.166386554621848e-05
	-6.861064425770308e-05

 52	3.120000000000002e-01
	3.120000000000002e-01
	6.000000000000000e+00
	8.554621848739494e-01
	1.156302521008403e-05
	-6.859383753501400e-05

 53	3.180000000000002e-01
	3.180000000000002e-01
	6.000000000000000e+00
	8.567226890756301e-01
	1.146218487394958e-05
	-6.857703081232492e-05

 54	3.240000000000002e-01
	3.240000000000002e-01
	6.000000000000000e+00
	8.579831932773108e-01
	1.136134453781512e-05
	-6.856022408963585e-05

 55	3.300000000000002e-01
	3.300000000000002e-01
	6.000000000000000e+00
	8.592436974789914e-01
	1.126050420168067e-05
	-6.854341736694677e-05

 56	3.360000000000002e-01
	3.360000000000002e-01
	6.000000000000000e+00
	8.605042016806721e-01
	1.115966386554621e-05
	-6.852661064425769e-05

 57	3.420000000000002e-01
	3.420000000000002e-01
	6.000000000000000e+00
	8.617647058823528e-01
	1.105882352941176e-05
	-6.850980392156863e-05

 58	3.480000000000002e-01
	3.480000000000002e-01
	6.000000000000000e+00
	8.630252100840335e-01
	1.095798319327731e-05
	-6.849299719887955e-05

 59	3.540000000000002e-01
	3.540000000000002e-01
	6.000000000000000e+00
	8.642857142857141e-01
	1.085714285714285e-05
	-6.847619047619047e-05

 60	3.600000000000002e-01
	3.600000000000002e-01
	6.000000000000000e+00
	8.655462184873948e-01
	1.075630252100839e-05
	-6.845938375350139e-05

 61	3.660000000000002e-01
	3.660000000000002e-01
	6.000000000000000e+00
	8.668067226890755e-01
	1.065546218487395e-05
	-6.844257703081231e-05

 62	3.720000000000002e-01
	3.720000000000002e-01
	6.000000000000000e+00
	8.680672268907562e-01
	1.055462184873949e-05
	-6.842577030812325e-05

 63	3.780000000000002e-01
	3.780000000000002e-01
	6.000000000000000e+00
	8.693277310924368e-01
	1.045378151260503e-05
	-6.840896358543417e-05

 64	3.840000000000002e-01
	3.840000000000002e-01
	6.000000000000000e+00
	8.705882352941174e-01
	1.035294117647058e-05
	-6.839215686274509e-05

 65	3.900000000000002e-01
	3.900000000000002e-01
	6.000000000000000e+00
	8.718487394957982e-01
	1.025210084033613e-05
	-6.837535014005602e-05

 66	3.960000000000002e-01
	3.960000000000002e-01
	6.000000000000000e+00
	8.731092436974788e-01
	1.015126050420167e-05
	-6.835854341736694e-05

 67	4.020000000000002e-01
	4.020000000000002e-01
	6.000000000000000e+00
	8.743697478991594e-01
	1.005042016806722e-05
	-6.834173669467786e-05

 68	4.080000000000003e-01
	4.080000000000003e-01
	6.000000000000000e+00
	8.756302521008402e-01
	9.949579831932765e-06
	-6.832492997198879e-05

 69	4.140000000000003e-01
	4.140000000000003e-01
	6.000000000000000e+00
	8.768907563025209e-01
	9.848739495798311e-06
	-6.830812324929972e-05

 70	4.200000000000003e-01
	4.200000000000003e-01
	6.000000000000000e+00
	8.781512605042016e-01
	9.747899159663856e-06
	-6.829131652661064e-05

 71	4.260000000000003e-01
	4.260000000000003e-01
	6.000000000000000e+00
	8.794117647058822e-01
	9.647058823529404e-06
	-6.827450980392156e-05

 72	4.320000000000003e-01
	4.320000000000003e-01
	6.000000000000000e+00
	8.806722689075629e-01
	9.546218487394949e-06
	-6.825770308123248e-05

 73	4.380000000000003e-01
	4.380000000000003e-01
	6.000000000000000e+00
	8.819327731092436e-01
	9.445378151260495e-06
	-6.824089635854342e-05

 74	4.440000000000003e-01
	4.440000000000003e-01
	6.000000000000000e+00
	8.831932773109242e-01
	9.344537815126041e-06
	-6.822408963585434e-05

 75	4.500000000000003e-01
	4.500000000000003e-01
	6.000000000000000e+00
	8.844537815126049e-01
	9.243697478991586e-06
	-6.820728291316526e-05

 76	4.560000000000003e-01
	4.560000000000003e-01
	6.000000000000000e+00
	8.857142857142856e-01
	9.142857142857135e-06
	-6.819047619047618e-05

 77	4.620000000000003e-01
	4.620000000000003e-01
	6.000000000000000e+00
	8.869747899159663e-01
	9.042016806722681e-06
	-6.817366946778711e-05

 78	4.680000000000003e-01
	4.680000000000003e-01
	6.000000000000000e+00
	8.882352941176469e-01
	8.941176470588227e-06
	-6.815686274509804e-05

 79	4.740000000000003e-01
	4.740000000000003e-01
	6.000000000000000e+00
	8.894957983193276e-01
	8.840336134453772e-06
	-6.814005602240896e-05

 80	4.800000000000003e-01
	4.800000000000003e-01
	6.000000000000000e+00
	8.907563025210083e-01
	8.739495798319318e-06
	-6.812324929971988e-05

 81	4.860000000000003e-01
	4.860000000000003e-01
	6.000000000000000e+00
	8.920168067226889e-01
	8.638655462184865e-06
	-6.810644257703081e-05

 82	4.920000000000003e-01
	4.920000000000003e-01
	6.000000000000000e+00
	8.932773109243696e-01
	8.537815126050411e-06
	-6.808963585434173e-05

 83	4.980000000000003e-01
	4.980000000000003e-01
	6.000000000000000e+00
	8.945378151260502e-01
	8.436974789915957e-06
	-6.807282913165265e-05

 84	5.040000000000003e-01
	5.040000000000003e-01
	6.000000000000000e+00
	8.957983193277310e-01
	8.336134453781506e-06
	-6.805602240896357e-05

 85	5.100000000000003e-01
	5.100000000000003e-01
	6.000000000000000e+00
	8.970588235294117e-01
	8.235294117647051e-06
	-6.803921568627451e-05

 86	5.160000000000003e-01
	5.160000000000003e-01
	6.000000000000000e+00
	8.983193277310922e-01
	8.134453781512594e-06
	-6.802240896358543e-05

 87	5.220000000000004e-01
	5.220000000000004e-01
	6.000000000000000e+00
	8.995798319327730e-01
	8.033613445378143e-06
	-6.800560224089635e-05

 88	5.280000000000004e-01
	5.280000000000004e-01
	6.000000000000000e+00
	9.008403361344537e-01
	7.932773109243688e-06
	-6.798879551820727e-05

 89	5.340000000000004e-01
	5.340000000000004e-01
	6.000000000000000e+00
	9.021008403361342e-01
	7.831932773109231e-06
	-6.797198879551821e-05

 90	5.400000000000004e-01
	5.400000000000004e-01
	6.000000000000000e+00
	9.033613445378150e-01
	7.731092436974780e-06
	-6.795518207282913e-05

 91	5.460000000000004e-01
	5.460000000000004e-01
	6.000000000000000e+00
	9.046218487394957e-01
	7.630252100840327e-06
	-6.793837535014005e-05

 92	5.520000000000004e-01
	5.520000000000004e-01
	6.000000000000000e+00
	9.058823529411764e-01
	7.529411764705873e-06
	-6.792156862745098e-05

 93	5.580000000000004e-01
	5.580000000000004e-01
	6.000000000000000e+00
	9.071428571428569e-01
	7.428571428571415e-06
	-6.790476190476190e-05

 94	5.640000000000004e-01
	5.640000000000004e-01
	6.000000000000000e+00
	9.084033613445377e-01
	7.327731092436964e-06
	-6.788795518207282e-05

 95	5.700000000000004e-01
	5.700000000000004e-01
	6.000000000000000e+00
	9.096638655462184e-01
	7.226890756302509e-06
	-6.787114845938374e-05

 96	5.760000000000004e-01
	5.760000000000004e-01
	6.000000000000000e+00
	9.109243697478991e-01
	7.126050420168059e-06
	-6.785434173669467e-05

 97	5.820000000000004e-01
	5.820000000000004e-01
	6.000000000000000e+00
	9.121848739495797e-01
	7.025210084033601e-06
	-6.783753501400560e-05

 98	5.880000000000004e-01
	5.880000000000004e-01
	6.000000000000000e+00
	9.134453781512604e-01
	6.924369747899146e-06
	-6.782072829131652e-05

 99	5.940000000000004e-01
	5.940000000000004e-01
	6.000000000000000e+00
	9.147058823529410e-01
	6.823529411764692e-06
	-6.780392156862744e-05

 100	6.000000000000004e-01
	6.000000000000004e-01
	6.000000000000000e+00
	9.159663865546218e-01
	6.722689075630243e-06
	-6.778711484593838e-05

 101	6.060000000000004e-01
	6.060000000000004e-01
	6.000000000000000e+00
	9.172268907563024e-01
	6.621848739495788e-06
	-6.777030812324930e-05

 102	6.120000000000004e-01
	6.120000000000004e-01
	6.000000000000000e+00
	9.184873949579830e-01
	6.521008403361334e-06
	-6.775350140056022e-05

 103	6.180000000000004e-01
	6.180000000000004e-01
	6.000000000000000e+00
	9.197478991596638e-01
	6.420168067226880e-06
	-6.773669467787114e-05

 104	6.240000000000004e-01
	6.240000000000004e-01
	6.000000000000000e+00
	9.210084033613444e-01
	6.319327731092425e-06
	-6.771988795518207e-05

 105	6.300000000000004e-01
	6.300000000000004e-01
	6.000000000000000e+00
	9.222689075630250e-01
	6.218487394957971e-06
	-6.770308123249299e-05

 106	6.360000000000005e-01
	6.360000000000005e-01
	6.000000000000000e+00
	9.235294117647058e-01
	6.117647058823520e-06
	-6.768627450980391e-05

 107	6.420000000000005e-01
	6.420000000000005e-01
	6.000000000000000e+00
	9.247899159663865e-01
	6.016806722689066e-06
	-6.766946778711484e-05

 108	6.480000000000005e-01
	6.480000000000005e-01
	6.000000000000000e+00
	9.260504201680672e-01
	5.915966386554611e-06
	-6.765266106442577e-05

 109	6.540000000000005e-01
	6.540000000000005e-01
	6.000000000000000e+00
	9.273109243697477e-01
	5.815126050420154e-06
	-6.763585434173669e-05

 110	6.600000000000005e-01
	6.600000000000005e-01
	6.000000000000000e+00
	9.285714285714285e-01
	5.714285714285704e-06
	-6.761904761904761e-05

 111	6.660000000000005e-01
	6.660000000000005e-01
	6.000000000000000e+00
	9.298319327731092e-01
	5.613445378151250e-06
	-6.760224089635853e-05

 112	6.720000000000005e-01
	6.720000000000005e-01
	6.000000000000000e+00
	9.310924369747897e-01
	5.512605042016792e-06
	-6.758543417366947e-05

 113	6.780000000000005e-01
	6.780000000000005e-01
	6.000000000000000e+00
	9.323529411764705e-01
	5.411764705882341e-06
	-6.756862745098039e-05

 114	6.840000000000005e-01
	6.840000000000005e-01
	6.000000000000000e+00
	9.336134453781512e-01
	5.310924369747887e-06
	-6.755182072829131e-05

 115	6.900000000000005e-01
	6.900000000000005e-01
	6.000000000000000e+00
	9.348739495798318e-01
	5.210084033613433e-06
	-6.753501400560223e-05

 116	6.960000000000005e-01
	6.960000000000005e-01
	6.000000000000000e+00
	9.361344537815125e-01
	5.109243697478978e-06
	-6.751820728291316e-05

 117	7.020000000000005e-01
	7.020000000000005e-01
	6.000000000000000e+00
	9.373949579831932e-01
	5.008403361344524e-06
	-6.750140056022409e-05

 118	7.080000000000005e-01
	7.080000000000005e-01
	6.000000000000000e+00
	9.386554621848738e-01
	4.907563025210070e-06
	-6.748459383753501e-05

 119	7.140000000000005e-01
	7.140000000000005e-01
	6.000000000000000e+00
	9.399159663865546e-01
	4.806722689075619e-06
	-6.746778711484593e-05

 120	7.200000000000005e-01
	7.200000000000005e-01
	6.000000000000000e+00
	9.411764705882352e-01
	4.705882352941163e-06
	-6.745098039215686e-05

 121	7.260000000000005e-01
	7.260000000000005e-01
	6.000000000000000e+00
	9.424369747899158e-01
	4.605042016806708e-06
	-6.743417366946778e-05

 122	7.320000000000005e-01
	7.320000000000005e-01
	6.000000000000000e+00
	9.436974789915966e-01
	4.504201680672257e-06
	-6.741736694677870e-05

 123	7.380000000000005e-01
	7.380000000000005e-01
	6.000000000000000e+00
	9.449579831932773e-01
	4.403361344537803e-06
	-6.740056022408962e-05

 124	7.440000000000005e-01
	7.440000000000005e-01
	6.000000000000000e+00
	9.462184873949578e-01
	4.302521008403348e-06
	-6.738375350140056e-05

 125	7.500000000000006e-01
	7.500000000000006e-01
	6.000000000000000e+00
	9.474789915966386e-01
	4.201680672268894e-06
	-6.736694677871148e-05

 126	7.560000000000006e-01
	7.560000000000006e-01
	6.000000000000000e+00
	9.487394957983193e-01
	4.100840336134440e-06
	-6.735014005602240e-05

 127	7.620000000000006e-01
	7.620000000000006e-01
	6.000000000000000e+00
	9.499999999999998e-01
	3.999999999999985e-06
	-6.733333333333333e-05

 128	7.680000000000006e-01
	7.680000000000006e-01
	6.000000000000000e+00
	9.512605042016805e-01
	3.899159663865531e-06
	-6.731652661064426e-05

 129	7.740000000000006e-01
	7.740000000000006e-01
	6.000000000000000e+00
	9.525210084033613e-01
	3.798319327731080e-06
	-6.729971988795518e-05

 130	7.800000000000006e-01
	7.800000000000006e-01
	6.000000000000000e+00
	9.537815126050420e-01
	3.697478991596626e-06
	-6.728291316526610e-05

 131	7.860000000000006e-01
	7.860000000000006e-01
	6.000000000000000e+00
	9.550420168067227e-01
	3.596638655462171e-06
	-6.726610644257702e-05

 132	7.920000000000006e-01
	7.920000000000006e-01
	6.000000000000000e+00
	9.563025210084033e-01
	3.495798319327717e-06
	-6.724929971988795e-05

 133	7.980000000000006e-01
	7.980000000000006e-01
	6.000000000000000e+00
	9.575630252100840e-01
	3.394957983193263e-06
	-6.723249299719887e-05

 134	8.040000000000006e-01
	8.040000000000006e-01
	6.000000000000000e+00
	9.588235294117646e-01
	3.294117647058808e-06
	-6.721568627450979e-05

 135	8.100000000000006e-01
	8.100000000000006e-01
	6.000000000000000e+00
	9.600840336134453e-01
	3.193277310924357e-06
	-6.719887955182073e-05

 136	8.160000000000006e-01
	8.160000000000006e-01
	6.000000000000000e+00
	9.613445378151260e-01
	3.092436974789903e-06
	-6.718207282913165e-05

 137	8.220000000000006e-01
	8.220000000000006e-01
	6.000000000000000e+00
	9.626050420168066e-01
	2.991596638655449e-06
	-6.716526610644257e-05

 138	8.280000000000006e-01
	8.280000000000006e-01
	6.000000000000000e+00
	9.638655462184874e-01
	2.890756302520998e-06
	-6.714845938375349e-05

 139	8.340000000000006e-01
	8.340000000000006e-01
	6.000000000000000e+00
	9.651260504201680e-01
	2.789915966386540e-06
	-6.713165266106443e-05

 140	8.400000000000006e-01
	8.400000000000006e-01
	6.000000000000000e+00
	9.663865546218486e-01
	2.689075630252086e-06
	-6.711484593837535e-05

 141	8.460000000000006e-01
	8.460000000000006e-01
	6.000000000000000e+00
	9.676470588235294e-01
	2.588235294117635e-06
	-6.709803921568627e-05

 142	8.520000000000006e-01
	8.520000000000006e-01
	6.000000000000000e+00
	9.689075630252100e-01
	2.487394957983177e-06
	-6.708123249299719e-05

 143	8.580000000000007e-01
	8.580000000000007e-01
	6.000000000000000e+00
	9.701680672268906e-01
	2.386554621848723e-06
	-6.706442577030812e-05

 144	8.640000000000007e-01
	8.640000000000007e-01
	6.000000000000000e+00
	9.714285714285713e-01
	2.285714285714268e-06
	-6.704761904761904e-05

 145	8.700000000000007e-01
	8.700000000000007e-01
	6.000000000000000e+00
	9.726890756302521e-01
	2.184873949579817e-06
	-6.703081232492996e-05

 146	8.760000000000007e-01
	8.760000000000007e-01
	6.000000000000000e+00
	9.739495798319328e-01
	2.084033613445363e-06
	-6.701400560224089e-05

 147	8.820000000000007e-01
	8.820000000000007e-01
	6.000000000000000e+00
	9.752100840336133e-01
	1.983193277310909e-06
	-6.699719887955182e-05

 148	8.880000000000007e-01
	8.880000000000007e-01
	6.000000000000000e+00
	9.764705882352941e-01
	1.882352941176454e-06
	-6.698039215686274e-05

 149	8.940000000000007e-01
	8.940000000000007e-01
	6.000000000000000e+00
	9.777310924369748e-01
	1.781512605042000e-06
	-6.696358543417366e-05

 150	9.000000000000007e-01
	9.000000000000007e-01
	6.000000000000000e+00
	9.789915966386553e-01
	1.680672268907545e-06
	-6.694677871148458e-05

 151	9.060000000000007e-01
	9.060000000000007e-01
	6.000000000000000e+00
	9.802521008403361e-01
	1.579831932773091e-06
	-6.692997198879552e-05

 152	9.120000000000007e-01
	9.120000000000007e-01
	6.000000000000000e+00
	9.815126050420168e-01
	1.478991596638637e-06
	-6.691316526610644e-05

 153	9.180000000000007e-01
	9.180000000000007e-01
	6.000000000000000e+00
	9.827731092436974e-01
	1.378151260504186e-06
	-6.689635854341736e-05

 154	9.240000000000007e-01
	9.240000000000007e-01
	6.000000000000000e+00
	9.840336134453782e-01
	1.277310924369731e-06
	-6.687955182072828e-05

 155	9.300000000000007e-01
	9.300000000000007e-01
	6.000000000000000e+00
	9.852941176470588e-01
	1.176470588235280e-06
	-6.686274509803921e-05

 156	9.360000000000007e-01
	9.360000000000007e-01
	6.000000000000000e+00
	9.865546218487394e-01
	1.075630252100826e-06
	-6.684593837535014e-05

 157	9.420000000000007e-01
	9.420000000000007e-01
	6.000000000000000e+00
	9.878151260504200e-01
	9.747899159663684e-07
	-6.682913165266106e-05

 158	9.480000000000007e-01
	9.480000000000007e-01
	6.000000000000000e+00
	9.890756302521008e-01
	8.739495798319174e-07
	-6.681232492997198e-05

 159	9.540000000000007e-01
	9.540000000000007e-01
	6.000000000000000e+00
	9.903361344537814e-01
	7.731092436974630e-07
	-6.679551820728291e-05

 160	9.600000000000007e-01
	9.600000000000007e-01
	6.000000000000000e+00
	9.915966386554621e-01
	6.722689075630087e-07
	-6.677871148459383e-05

 161	9.660000000000007e-01
	9.660000000000007e-01
	6.000000000000000e+00
	9.928571428571429e-01
	5.714285714285577e-07
	-6.676190476190475e-05

 162	9.720000000000008e-01
	9.720000000000008e-01
	6.000000000000000e+00
	9.941176470588234e-01
	4.705882352941000e-07
	-6.674509803921569e-05

 163	9.780000000000008e-01
	9.780000000000008e-01
	6.000000000000000e+00
	9.953781512605041e-01
	3.697478991596456e-07
	-6.672829131652661e-05

 164	9.840000000000008e-01
	9.840000000000008e-01
	6.000000000000000e+00
	9.966386554621849e-01
	2.689075630251947e-07
	-6.671148459383753e-05

 165	9.900000000000008e-01
	9.900000000000008e-01
	6.000000000000000e+00
	9.978991596638654e-01
	1.680672268907369e-07
	-6.669467787114845e-05

 166	9.960000000000008e-01
	9.960000000000008e-01
	6.000000000000000e+00
	9.991596638655461e-01
	6.722689075628257e-08
	-6.667787114845937e-05

 167	1.002000000000001e+00
	1.002000000000001e+00
	6.000000000000000e+00
	1.000420168067227e+00
	-3.361344537816500e-08
	-6.666106442577031e-05

 168	1.008000000000001e+00
	1.008000000000001e+00
	6.000000000000000e+00
	1.001680672268908e+00
	-1.344537815126194e-07
	-6.664425770308123e-05

 169	1.014000000000001e+00
	1.014000000000001e+00
	6.000000000000000e+00
	1.002941176470588e+00
	-2.352941176470737e-07
	-6.662745098039215e-05

 170	1.020000000000001e+00
	1.020000000000001e+00
	6.000000000000000e+00
	1.004201680672269e+00
	-3.361344537815281e-07
	-6.661064425770308e-05

 171	1.026000000000001e+00
	1.026000000000001e+00
	6.000000000000000e+00
	1.005462184873950e+00
	-4.369747899159824e-07
	-6.659383753501400e-05

 172	1.032000000000001e+00
	1.032000000000001e+00
	6.000000000000000e+00
	1.006722689075630e+00
	-5.378151260504368e-07
	-6.657703081232492e-05

 173	1.038000000000001e+00
	1.038000000000001e+00
	6.000000000000000e+00
	1.007983193277311e+00
	-6.386554621848911e-07
	-6.656022408963584e-05

 174	1.044000000000001e+00
	1.044000000000001e+00
	6.000000000000000e+00
	1.009243697478992e+00
	-7.394957983193455e-07
	-6.654341736694677e-05

 175	1.050000000000001e+00
	1.050000000000001e+00
	6.000000000000000e+00
	1.010504201680672e+00
	-8.403361344537998e-07
	-6.652661064425770e-05

 176	1.056000000000001e+00
	1.056000000000001e+00
	6.000000000000000e+00
	1.011764705882353e+00
	-9.411764705882508e-07
	-6.650980392156862e-05

 177	1.062000000000001e+00
	1.062000000000001e+00
	6.000000000000000e+00
	1.013025210084034e+00
	-1.042016806722705e-06
	-6.649299719887954e-05

 178	1.068000000000001e+00
	1.068000000000001e+00
	6.000000000000000e+00
	1.014285714285714e+00
	-1.142857142857160e-06
	-6.647619047619048e-05

 179	1.074000000000001e+00
	1.074000000000001e+00
	6.000000000000000e+00
	1.015546218487395e+00
	-1.243697478991614e-06
	-6.645938375350140e-05

 180	1.080000000000001e+00
	1.080000000000001e+00
	6.000000000000000e+00
	1.016806722689076e+00
	-1.344537815126068e-06
	-6.644257703081232e-05

 181	1.086000000000001e+00
	1.086000000000001e+00
	6.000000000000000e+00
	1.018067226890756e+00
	-1.445378151260519e-06
	-6.642577030812324e-05

 182	1.092000000000001e+00
	1.092000000000001e+00
	6.000000000000000e+00
	1.019327731092437e+00
	-1.546218487394974e-06
	-6.640896358543417e-05

 183	1.098000000000001e+00
	1.098000000000001e+00
	6.000000000000000e+00
	1.020588235294118e+00
	-1.647058823529428e-06
	-6.639215686274509e-05

 184	1.104000000000001e+00
	1.104000000000001e+00
	6.000000000000000e+00
	1.021848739495798e+00
	-1.747899159663882e-06
	-6.637535014005601e-05

 185	1.110000000000001e+00
	1.110000000000001e+00
	6.000000000000000e+00
	1.023109243697479e+00
	-1.848739495798337e-06
	-6.635854341736694e-05

 186	1.116000000000001e+00
	1.116000000000001e+00
	6.000000000000000e+00
	1.024369747899160e+00
	-1.949579831932791e-06
	-6.634173669467787e-05

 187	1.122000000000001e+00
	1.122000000000001e+00
	6.000000000000000e+00
	1.025630252100840e+00
	-2.050420168067245e-06
	-6.632492997198879e-05

 188	1.128000000000001e+00
	1.128000000000001e+00
	6.000000000000000e+00
	1.026890756302521e+00
	-2.151260504201700e-06
	-6.630812324929971e-05

 189	1.134000000000001e+00
	1.134000000000001e+00
	6.000000000000000e+00
	1.028151260504202e+00
	-2.252100840336154e-06
	-6.629131652661063e-05

 190	1.140000000000001e+00
	1.140000000000001e+00
	6.000000000000000e+00
	1.029411764705882e+00
	-2.352941176470608e-06
	-6.627450980392157e-05

 191	1.146000000000001e+00
	1.146000000000001e+00
	6.000000000000000e+00
	1.030672268907563e+00
	-2.453781512605056e-06
	-6.625770308123249e-05

 192	1.152000000000001e+00
	1.152000000000001e+00
	6.000000000000000e+00
	1.031932773109244e+00
	-2.554621848739517e-06
	-6.624089635854341e-05

 193	1.158000000000001e+00
	1.158000000000001e+00
	6.000000000000000e+00
	1.033193277310924e+00
	-2.655462184873971e-06
	-6.622408963585433e-05

 194	1.164000000000001e+00
	1.164000000000001e+00
	6.000000000000000e+00
	1.034453781512605e+00
	-2.756302521008419e-06
	-6.620728291316526e-05

 195	1.170000000000001e+00
	1.170000000000001e+00
	6.000000000000000e+00
	1.035714285714286e+00
	-2.857142857142877e-06
	-6.619047619047619e-05

 196	1.176000000000001e+00
	1.176000000000001e+00
	6.000000000000000e+00
	1.036974789915966e+00
	-2.957983193277331e-06
	-6.617366946778711e-05

 197	1.182000000000001e+00
	1.182000000000001e+00
	6.000000000000000e+00
	1.038235294117647e+00
	-3.058823529411785e-06
	-6.615686274509804e-05

 198	1.188000000000001e+00
	1.188000000000001e+00
	6.000000000000000e+00
	1.039495798319328e+00
	-3.159663865546236e-06
	-6.614005602240895e-05

 199	1.194000000000001e+00
	1.194000000000001e+00
	6.000000000000000e+00
	1.040756302521008e+00
	-3.260504201680691e-06
	-6.612324929971988e-05

 200	1.200000000000001e+00
	1.200000000000001e+00
	6.000000000000000e+00
	1.042016806722689e+00
	-3.361344537815145e-06
	-6.610644257703080e-05

 201	1.206000000000001e+00
	1.206000000000001e+00
	6.000000000000000e+00
	1.043277310924370e+00
	-3.462184873949596e-06
	-6.608963585434172e-05

 202	1.212000000000001e+00
	1.212000000000001e+00
	6.000000000000000e+00
	1.044537815126050e+00
	-3.563025210084054e-06
	-6.607282913165266e-05

 203	1.218000000000001e+00
	1.218000000000001e+00
	6.000000000000000e+00
	1.045798319327731e+00
	-3.663865546218508e-06
	-6.605602240896358e-05

 204	1.224000000000001e+00
	1.224000000000001e+00
	6.000000000000000e+00
	1.047058823529412e+00
	-3.764705882352959e-06
	-6.603921568627450e-05

 205	1.230000000000001e+00
	1.230000000000001e+00
	6.000000000000000e+00
	1.048319327731092e+00
	-3.865546218487410e-06
	-6.602240896358542e-05

 206	1.236000000000001e+00
	1.236000000000001e+00
	6.000000000000000e+00
	1.049579831932773e+00
	-3.966386554621864e-06