Title: * spicenetlist
Date: Sun Mar  3 21:59:12  2019
Plotname: DC transfer characteristic
Flags: real
No. Variables: 7
No. Points: 501
Variables:
	0	v-sweep	voltage
	1	v(vdd)	voltage
	2	v(fb)	voltage
	3	v(ledk)	voltage
	4	v(leda)	voltage
	5	i(i(v_v1))	current
	6	i(i(v_v2))	current
Values:
 0	0.000000000000000e+00
	0.000000000000000e+00
	2.727250188014975e-01
	2.999975206816473e-01
	3.300000000000000e+00
	2.727250188014975e-05
	-3.000002479318353e+00

 1	5.600000000000000e-03
	5.600000000000000e-03
	2.732341517838695e-01
	2.999975669622565e-01
	3.300000000000000e+00
	2.676341517838695e-05
	-3.000002433037744e+00

 2	1.120000000000000e-02
	1.120000000000000e-02
	2.737432847662415e-01
	2.999976132428658e-01
	3.300000000000000e+00
	2.625432847662416e-05
	-3.000002386757135e+00

 3	1.680000000000000e-02
	1.680000000000000e-02
	2.742524177486136e-01
	2.999976595234750e-01
	3.300000000000000e+00
	2.574524177486136e-05
	-3.000002340476525e+00

 4	2.240000000000000e-02
	2.240000000000000e-02
	2.747615507309856e-01
	2.999977058040842e-01
	3.300000000000000e+00
	2.523615507309856e-05
	-3.000002294195916e+00

 5	2.800000000000000e-02
	2.800000000000000e-02
	2.752706837133577e-01
	2.999977520846935e-01
	3.300000000000000e+00
	2.472706837133577e-05
	-3.000002247915307e+00

 6	3.360000000000000e-02
	3.360000000000000e-02
	2.757798166957297e-01
	2.999977983653028e-01
	3.300000000000000e+00
	2.421798166957297e-05
	-3.000002201634698e+00

 7	3.920000000000000e-02
	3.920000000000000e-02
	2.762889496781017e-01
	2.999978446459120e-01
	3.300000000000000e+00
	2.370889496781018e-05
	-3.000002155354088e+00

 8	4.480000000000000e-02
	4.480000000000000e-02
	2.767980826604738e-01
	2.999978909265213e-01
	3.300000000000000e+00
	2.319980826604738e-05
	-3.000002109073479e+00

 9	5.040000000000000e-02
	5.040000000000000e-02
	2.773072156428459e-01
	2.999979372071305e-01
	3.300000000000000e+00
	2.269072156428459e-05
	-3.000002062792870e+00

 10	5.600000000000000e-02
	5.600000000000000e-02
	2.778163486252179e-01
	2.999979834877398e-01
	3.300000000000000e+00
	2.218163486252179e-05
	-3.000002016512260e+00

 11	6.160000000000000e-02
	6.160000000000000e-02
	2.783254816075900e-01
	2.999980297683491e-01
	3.300000000000000e+00
	2.167254816075900e-05
	-3.000001970231651e+00

 12	6.720000000000000e-02
	6.720000000000000e-02
	2.788346145899620e-01
	2.999980760489583e-01
	3.300000000000000e+00
	2.116346145899620e-05
	-3.000001923951042e+00

 13	7.279999999999999e-02
	7.279999999999999e-02
	2.793437475723341e-01
	2.999981223295675e-01
	3.300000000000000e+00
	2.065437475723341e-05
	-3.000001877670433e+00

 14	7.839999999999998e-02
	7.839999999999998e-02
	2.798528805547061e-01
	2.999981686101768e-01
	3.300000000000000e+00
	2.014528805547061e-05
	-3.000001831389823e+00

 15	8.399999999999998e-02
	8.399999999999998e-02
	2.803620135370781e-01
	2.999982148907860e-01
	3.300000000000000e+00
	1.963620135370782e-05
	-3.000001785109214e+00

 16	8.959999999999997e-02
	8.959999999999997e-02
	2.808711465194502e-01
	2.999982611713953e-01
	3.300000000000000e+00
	1.912711465194502e-05
	-3.000001738828605e+00

 17	9.519999999999997e-02
	9.519999999999997e-02
	2.813802795018223e-01
	2.999983074520046e-01
	3.300000000000000e+00
	1.861802795018223e-05
	-3.000001692547996e+00

 18	1.008000000000000e-01
	1.008000000000000e-01
	2.818894124841943e-01
	2.999983537326138e-01
	3.300000000000000e+00
	1.810894124841943e-05
	-3.000001646267386e+00

 19	1.064000000000000e-01
	1.064000000000000e-01
	2.823985454665663e-01
	2.999984000132230e-01
	3.300000000000000e+00
	1.759985454665664e-05
	-3.000001599986777e+00

 20	1.119999999999999e-01
	1.119999999999999e-01
	2.829076784489384e-01
	2.999984462938323e-01
	3.300000000000000e+00
	1.709076784489385e-05
	-3.000001553706168e+00

 21	1.175999999999999e-01
	1.175999999999999e-01
	2.834168114313104e-01
	2.999984925744416e-01
	3.300000000000000e+00
	1.658168114313105e-05
	-3.000001507425559e+00

 22	1.231999999999999e-01
	1.231999999999999e-01
	2.839259444136825e-01
	2.999985388550508e-01
	3.300000000000000e+00
	1.607259444136826e-05
	-3.000001461144949e+00

 23	1.287999999999999e-01
	1.287999999999999e-01
	2.844350773960545e-01
	2.999985851356600e-01
	3.300000000000000e+00
	1.556350773960546e-05
	-3.000001414864340e+00

 24	1.343999999999999e-01
	1.343999999999999e-01
	2.849442103784265e-01
	2.999986314162693e-01
	3.300000000000000e+00
	1.505442103784266e-05
	-3.000001368583731e+00

 25	1.399999999999999e-01
	1.399999999999999e-01
	2.854533433607986e-01
	2.999986776968785e-01
	3.300000000000000e+00
	1.454533433607987e-05
	-3.000001322303122e+00

 26	1.455999999999999e-01
	1.455999999999999e-01
	2.859624763431707e-01
	2.999987239774878e-01
	3.300000000000000e+00
	1.403624763431708e-05
	-3.000001276022513e+00

 27	1.511999999999999e-01
	1.511999999999999e-01
	2.864716093255427e-01
	2.999987702580971e-01
	3.300000000000000e+00
	1.352716093255428e-05
	-3.000001229741903e+00

 28	1.567999999999999e-01
	1.567999999999999e-01
	2.869807423079148e-01
	2.999988165387063e-01
	3.300000000000000e+00
	1.301807423079149e-05
	-3.000001183461294e+00

 29	1.623999999999999e-01
	1.623999999999999e-01
	2.874898752902868e-01
	2.999988628193155e-01
	3.300000000000000e+00
	1.250898752902869e-05
	-3.000001137180685e+00

 30	1.679999999999999e-01
	1.679999999999999e-01
	2.879990082726588e-01
	2.999989090999248e-01
	3.300000000000000e+00
	1.199990082726590e-05
	-3.000001090900076e+00

 31	1.735999999999999e-01
	1.735999999999999e-01
	2.885081412550309e-01
	2.999989553805341e-01
	3.300000000000000e+00
	1.149081412550310e-05
	-3.000001044619466e+00

 32	1.791999999999999e-01
	1.791999999999999e-01
	2.890172742374029e-01
	2.999990016611433e-01
	3.300000000000000e+00
	1.098172742374030e-05
	-3.000000998338857e+00

 33	1.847999999999999e-01
	1.847999999999999e-01
	2.895264072197750e-01
	2.999990479417525e-01
	3.300000000000000e+00
	1.047264072197751e-05
	-3.000000952058248e+00

 34	1.903999999999999e-01
	1.903999999999999e-01
	2.900355402021471e-01
	2.999990942223618e-01
	3.300000000000000e+00
	9.963554020214721e-06
	-3.000000905777639e+00

 35	1.959999999999999e-01
	1.959999999999999e-01
	2.905446731845191e-01
	2.999991405029711e-01
	3.300000000000000e+00
	9.454467318451922e-06
	-3.000000859497029e+00

 36	2.015999999999999e-01
	2.015999999999999e-01
	2.910538061668911e-01
	2.999991867835803e-01
	3.300000000000000e+00
	8.945380616689123e-06
	-3.000000813216420e+00

 37	2.071999999999999e-01
	2.071999999999999e-01
	2.915629391492632e-01
	2.999992330641896e-01
	3.300000000000000e+00
	8.436293914926331e-06
	-3.000000766935811e+00

 38	2.127999999999999e-01
	2.127999999999999e-01
	2.920720721316352e-01
	2.999992793447988e-01
	3.300000000000000e+00
	7.927207213163536e-06
	-3.000000720655201e+00

 39	2.183999999999998e-01
	2.183999999999998e-01
	2.925812051140073e-01
	2.999993256254080e-01
	3.300000000000000e+00
	7.418120511400744e-06
	-3.000000674374592e+00

 40	2.239999999999998e-01
	2.239999999999998e-01
	2.930903380963793e-01
	2.999993719060173e-01
	3.300000000000000e+00
	6.909033809637945e-06
	-3.000000628093983e+00

 41	2.295999999999998e-01
	2.295999999999998e-01
	2.935994710787513e-01
	2.999994181866266e-01
	3.300000000000000e+00
	6.399947107875153e-06
	-3.000000581813373e+00

 42	2.351999999999998e-01
	2.351999999999998e-01
	2.941086040611234e-01
	2.999994644672358e-01
	3.300000000000000e+00
	5.890860406112354e-06
	-3.000000535532764e+00

 43	2.407999999999998e-01
	2.407999999999998e-01
	2.946177370434955e-01
	2.999995107478451e-01
	3.300000000000000e+00
	5.381773704349566e-06
	-3.000000489252155e+00

 44	2.463999999999998e-01
	2.463999999999998e-01
	2.951268700258675e-01
	2.999995570284543e-01
	3.300000000000000e+00
	4.872687002586767e-06
	-3.000000442971546e+00

 45	2.519999999999998e-01
	2.519999999999998e-01
	2.956360030082395e-01
	2.999996033090636e-01
	3.300000000000000e+00
	4.363600300823965e-06
	-3.000000396690937e+00

 46	2.575999999999998e-01
	2.575999999999998e-01
	2.961451359906116e-01
	2.999996495896728e-01
	3.300000000000000e+00
	3.854513599061176e-06
	-3.000000350410327e+00

 47	2.631999999999998e-01
	2.631999999999998e-01
	2.966542689729836e-01
	2.999996958702821e-01
	3.300000000000000e+00
	3.345426897298381e-06
	-3.000000304129718e+00

 48	2.687999999999998e-01
	2.687999999999998e-01
	2.971634019553556e-01
	2.999997421508913e-01
	3.300000000000000e+00
	2.836340195535582e-06
	-3.000000257849109e+00

 49	2.743999999999998e-01
	2.743999999999998e-01
	2.976725349377277e-01
	2.999997884315005e-01
	3.300000000000000e+00
	2.327253493772793e-06
	-3.000000211568500e+00

 50	2.799999999999998e-01
	2.799999999999998e-01
	2.981816679200998e-01
	2.999998347121098e-01
	3.300000000000000e+00
	1.818166792009995e-06
	-3.000000165287890e+00

 51	2.855999999999998e-01
	2.855999999999998e-01
	2.986908009024718e-01
	2.999998809927191e-01
	3.300000000000000e+00
	1.309080090247199e-06
	-3.000000119007281e+00

 52	2.911999999999998e-01
	2.911999999999998e-01
	2.991999338848438e-01
	2.999999272733283e-01
	3.300000000000000e+00
	7.999933884844039e-07
	-3.000000072726672e+00

 53	2.967999999999998e-01
	2.967999999999998e-01
	2.997090668672159e-01
	2.999999735539376e-01
	3.300000000000000e+00
	2.909066867216085e-07
	-3.000000026446063e+00

 54	3.023999999999998e-01
	3.023999999999998e-01
	3.002181998495879e-01
	3.000000198345468e-01
	3.300000000000000e+00
	-2.181800150411835e-07
	-2.999999980165454e+00

 55	3.079999999999998e-01
	3.079999999999998e-01
	3.007273328319600e-01
	3.000000661151561e-01
	3.300000000000000e+00
	-7.272667168039721e-07
	-2.999999933884844e+00

 56	3.135999999999998e-01
	3.135999999999998e-01
	3.012364658143321e-01
	3.000001123957654e-01
	3.300000000000000e+00
	-1.236353418566771e-06
	-2.999999887604235e+00

 57	3.191999999999998e-01
	3.191999999999998e-01
	3.017455987967041e-01
	3.000001586763746e-01
	3.300000000000000e+00
	-1.745440120329570e-06
	-2.999999841323626e+00

 58	3.247999999999998e-01
	3.247999999999998e-01
	3.022547317790761e-01
	3.000002049569838e-01
	3.300000000000000e+00
	-2.254526822092365e-06
	-2.999999795043017e+00

 59	3.303999999999997e-01
	3.303999999999997e-01
	3.027638647614482e-01
	3.000002512375931e-01
	3.300000000000000e+00
	-2.763613523855157e-06
	-2.999999748762407e+00

 60	3.359999999999997e-01
	3.359999999999997e-01
	3.032729977438203e-01
	3.000002975182023e-01
	3.300000000000000e+00
	-3.272700225617949e-06
	-2.999999702481798e+00

 61	3.415999999999997e-01
	3.415999999999997e-01
	3.037821307261923e-01
	3.000003437988116e-01
	3.300000000000000e+00
	-3.781786927380751e-06
	-2.999999656201189e+00

 62	3.471999999999997e-01
	3.471999999999997e-01
	3.042912637085643e-01
	3.000003900794209e-01
	3.300000000000000e+00
	-4.290873629143540e-06
	-2.999999609920579e+00

 63	3.527999999999997e-01
	3.527999999999997e-01
	3.048003966909364e-01
	3.000004363600301e-01
	3.300000000000000e+00
	-4.799960330906332e-06
	-2.999999563639970e+00

 64	3.583999999999997e-01
	3.583999999999997e-01
	3.053095296733084e-01
	3.000004826406393e-01
	3.300000000000000e+00
	-5.309047032669134e-06
	-2.999999517359361e+00

 65	3.639999999999997e-01
	3.639999999999997e-01
	3.058186626556804e-01
	3.000005289212486e-01
	3.300000000000000e+00
	-5.818133734431926e-06
	-2.999999471078752e+00

 66	3.695999999999997e-01
	3.695999999999997e-01
	3.063277956380525e-01
	3.000005752018579e-01
	3.300000000000000e+00
	-6.327220436194718e-06
	-2.999999424798142e+00

 67	3.751999999999997e-01
	3.751999999999997e-01
	3.068369286204246e-01
	3.000006214824671e-01
	3.300000000000000e+00
	-6.836307137957517e-06
	-2.999999378517533e+00

 68	3.807999999999997e-01
	3.807999999999997e-01
	3.073460616027966e-01
	3.000006677630763e-01
	3.300000000000000e+00
	-7.345393839720315e-06
	-2.999999332236924e+00

 69	3.863999999999997e-01
	3.863999999999997e-01
	3.078551945851686e-01
	3.000007140436856e-01
	3.300000000000000e+00
	-7.854480541483107e-06
	-2.999999285956314e+00

 70	3.919999999999997e-01
	3.919999999999997e-01
	3.083643275675407e-01
	3.000007603242948e-01
	3.300000000000000e+00
	-8.363567243245899e-06
	-2.999999239675705e+00

 71	3.975999999999997e-01
	3.975999999999997e-01
	3.088734605499127e-01
	3.000008066049041e-01
	3.300000000000000e+00
	-8.872653945008698e-06
	-2.999999193395096e+00

 72	4.031999999999997e-01
	4.031999999999997e-01
	3.093825935322848e-01
	3.000008528855134e-01
	3.300000000000000e+00
	-9.381740646771483e-06
	-2.999999147114487e+00

 73	4.087999999999997e-01
	4.087999999999997e-01
	3.098917265146569e-01
	3.000008991661226e-01
	3.300000000000000e+00
	-9.890827348534282e-06
	-2.999999100833878e+00

 74	4.143999999999997e-01
	4.143999999999997e-01
	3.104008594970288e-01
	3.000009454467318e-01
	3.300000000000000e+00
	-1.039991405029708e-05
	-2.999999054553268e+00

 75	4.199999999999997e-01
	4.199999999999997e-01
	3.109099924794009e-01
	3.000009917273411e-01
	3.300000000000000e+00
	-1.090900075205987e-05
	-2.999999008272659e+00

 76	4.255999999999996e-01
	4.255999999999996e-01
	3.114191254617730e-01
	3.000010380079504e-01
	3.300000000000000e+00
	-1.141808745382266e-05
	-2.999998961992050e+00

 77	4.311999999999996e-01
	4.311999999999996e-01
	3.119282584441450e-01
	3.000010842885596e-01
	3.300000000000000e+00
	-1.192717415558546e-05
	-2.999998915711441e+00

 78	4.367999999999996e-01
	4.367999999999996e-01
	3.124373914265171e-01
	3.000011305691689e-01
	3.300000000000000e+00
	-1.243626085734826e-05
	-2.999998869430831e+00

 79	4.423999999999996e-01
	4.423999999999996e-01
	3.129465244088891e-01
	3.000011768497781e-01
	3.300000000000000e+00
	-1.294534755911105e-05
	-2.999998823150222e+00

 80	4.479999999999996e-01
	4.479999999999996e-01
	3.134556573912611e-01
	3.000012231303874e-01
	3.300000000000000e+00
	-1.345443426087385e-05
	-2.999998776869613e+00

 81	4.535999999999996e-01
	4.535999999999996e-01
	3.139647903736332e-01
	3.000012694109966e-01
	3.300000000000000e+00
	-1.396352096263664e-05
	-2.999998730589004e+00

 82	4.591999999999996e-01
	4.591999999999996e-01
	3.144739233560052e-01
	3.000013156916059e-01
	3.300000000000000e+00
	-1.447260766439944e-05
	-2.999998684308395e+00

 83	4.647999999999996e-01
	4.647999999999996e-01
	3.149830563383773e-01
	3.000013619722151e-01
	3.300000000000000e+00
	-1.498169436616224e-05
	-2.999998638027785e+00

 84	4.703999999999996e-01
	4.703999999999996e-01
	3.154921893207493e-01
	3.000014082528243e-01
	3.300000000000000e+00
	-1.549078106792503e-05
	-2.999998591747176e+00

 85	4.759999999999996e-01
	4.759999999999996e-01
	3.160013223031214e-01
	3.000014545334336e-01
	3.300000000000000e+00
	-1.599986776968783e-05
	-2.999998545466567e+00

 86	4.815999999999996e-01
	4.815999999999996e-01
	3.165104552854934e-01
	3.000015008140429e-01
	3.300000000000000e+00
	-1.650895447145062e-05
	-2.999998499185957e+00

 87	4.871999999999996e-01
	4.871999999999996e-01
	3.170195882678655e-01
	3.000015470946521e-01
	3.300000000000000e+00
	-1.701804117321341e-05
	-2.999998452905348e+00

 88	4.927999999999996e-01
	4.927999999999996e-01
	3.175287212502375e-01
	3.000015933752614e-01
	3.300000000000000e+00
	-1.752712787497621e-05
	-2.999998406624739e+00

 89	4.983999999999996e-01
	4.983999999999996e-01
	3.180378542326096e-01
	3.000016396558706e-01
	3.300000000000000e+00
	-1.803621457673900e-05
	-2.999998360344130e+00

 90	5.039999999999996e-01
	5.039999999999996e-01
	3.185469872149816e-01
	3.000016859364799e-01
	3.300000000000000e+00
	-1.854530127850180e-05
	-2.999998314063520e+00

 91	5.095999999999996e-01
	5.095999999999996e-01
	3.190561201973536e-01
	3.000017322170891e-01
	3.300000000000000e+00
	-1.905438798026460e-05
	-2.999998267782911e+00

 92	5.151999999999997e-01
	5.151999999999997e-01
	3.195652531797257e-01
	3.000017784976984e-01
	3.300000000000000e+00
	-1.956347468202740e-05
	-2.999998221502302e+00

 93	5.207999999999997e-01
	5.207999999999997e-01
	3.200743861620978e-01
	3.000018247783076e-01
	3.300000000000000e+00
	-2.007256138379020e-05
	-2.999998175221693e+00

 94	5.263999999999998e-01
	5.263999999999998e-01
	3.205835191444698e-01
	3.000018710589169e-01
	3.300000000000000e+00
	-2.058164808555300e-05
	-2.999998128941083e+00

 95	5.319999999999998e-01
	5.319999999999998e-01
	3.210926521268418e-01
	3.000019173395261e-01
	3.300000000000000e+00
	-2.109073478731580e-05
	-2.999998082660474e+00

 96	5.375999999999999e-01
	5.375999999999999e-01
	3.216017851092139e-01
	3.000019636201354e-01
	3.300000000000000e+00
	-2.159982148907860e-05
	-2.999998036379865e+00

 97	5.431999999999999e-01
	5.431999999999999e-01
	3.221109180915860e-01
	3.000020099007446e-01
	3.300000000000000e+00
	-2.210890819084140e-05
	-2.999997990099255e+00

 98	5.488000000000000e-01
	5.488000000000000e-01
	3.226200510739580e-01
	3.000020561813539e-01
	3.300000000000000e+00
	-2.261799489260419e-05
	-2.999997943818646e+00

 99	5.544000000000000e-01
	5.544000000000000e-01
	3.231291840563301e-01
	3.000021024619631e-01
	3.300000000000000e+00
	-2.312708159436700e-05
	-2.999997897538037e+00

 100	5.600000000000001e-01
	5.600000000000001e-01
	3.236383170387021e-01
	3.000021487425724e-01
	3.300000000000000e+00
	-2.363616829612979e-05
	-2.999997851257428e+00

 101	5.656000000000001e-01
	5.656000000000001e-01
	3.241474500210742e-01
	3.000021950231817e-01
	3.300000000000000e+00
	-2.414525499789259e-05
	-2.999997804976819e+00

 102	5.712000000000002e-01
	5.712000000000002e-01
	3.246565830034462e-01
	3.000022413037909e-01
	3.300000000000000e+00
	-2.465434169965540e-05
	-2.999997758696209e+00

 103	5.768000000000002e-01
	5.768000000000002e-01
	3.251657159858182e-01
	3.000022875844001e-01
	3.300000000000000e+00
	-2.516342840141820e-05
	-2.999997712415600e+00

 104	5.824000000000003e-01
	5.824000000000003e-01
	3.256748489681903e-01
	3.000023338650094e-01
	3.300000000000000e+00
	-2.567251510318099e-05
	-2.999997666134991e+00

 105	5.880000000000003e-01
	5.880000000000003e-01
	3.261839819505624e-01
	3.000023801456186e-01
	3.300000000000000e+00
	-2.618160180494379e-05
	-2.999997619854382e+00

 106	5.936000000000003e-01
	5.936000000000003e-01
	3.266931149329344e-01
	3.000024264262279e-01
	3.300000000000000e+00
	-2.669068850670659e-05
	-2.999997573573773e+00

 107	5.992000000000004e-01
	5.992000000000004e-01
	3.272022479153064e-01
	3.000024727068372e-01
	3.300000000000000e+00
	-2.719977520846940e-05
	-2.999997527293163e+00

 108	6.048000000000004e-01
	6.048000000000004e-01
	3.277113808976785e-01
	3.000025189874464e-01
	3.300000000000000e+00
	-2.770886191023219e-05
	-2.999997481012554e+00

 109	6.104000000000005e-01
	6.104000000000005e-01
	3.282205138800506e-01
	3.000025652680556e-01
	3.300000000000000e+00
	-2.821794861199499e-05
	-2.999997434731945e+00

 110	6.160000000000005e-01
	6.160000000000005e-01
	3.287296468624226e-01
	3.000026115486649e-01
	3.300000000000000e+00
	-2.872703531375780e-05
	-2.999997388451336e+00

 111	6.216000000000006e-01
	6.216000000000006e-01
	3.292387798447947e-01
	3.000026578292742e-01
	3.300000000000000e+00
	-2.923612201552060e-05
	-2.999997342170726e+00

 112	6.272000000000006e-01
	6.272000000000006e-01
	3.297479128271667e-01
	3.000027041098834e-01
	3.300000000000000e+00
	-2.974520871728339e-05
	-2.999997295890117e+00

 113	6.328000000000007e-01
	6.328000000000007e-01
	3.302570458095388e-01
	3.000027503904926e-01
	3.300000000000000e+00
	-3.025429541904619e-05
	-2.999997249609508e+00

 114	6.384000000000007e-01
	6.384000000000007e-01
	3.307661787919108e-01
	3.000027966711019e-01
	3.300000000000000e+00
	-3.076338212080900e-05
	-2.999997203328898e+00

 115	6.440000000000008e-01
	6.440000000000008e-01
	3.312753117742829e-01
	3.000028429517111e-01
	3.300000000000000e+00
	-3.127246882257180e-05
	-2.999997157048289e+00

 116	6.496000000000008e-01
	6.496000000000008e-01
	3.317844447566549e-01
	3.000028892323204e-01
	3.300000000000000e+00
	-3.178155552433459e-05
	-2.999997110767680e+00

 117	6.552000000000009e-01
	6.552000000000009e-01
	3.322935777390270e-01
	3.000029355129297e-01
	3.300000000000000e+00
	-3.229064222609739e-05
	-2.999997064487070e+00

 118	6.608000000000009e-01
	6.608000000000009e-01
	3.328027107213991e-01
	3.000029817935389e-01
	3.300000000000000e+00
	-3.279972892786019e-05
	-2.999997018206461e+00

 119	6.664000000000010e-01
	6.664000000000010e-01
	3.333118437037711e-01
	3.000030280741481e-01
	3.300000000000000e+00
	-3.330881562962300e-05
	-2.999996971925852e+00

 120	6.720000000000010e-01
	6.720000000000010e-01
	3.338209766861431e-01
	3.000030743547574e-01
	3.300000000000000e+00
	-3.381790233138579e-05
	-2.999996925645243e+00

 121	6.776000000000011e-01
	6.776000000000011e-01
	3.343301096685152e-01
	3.000031206353667e-01
	3.300000000000000e+00
	-3.432698903314859e-05
	-2.999996879364633e+00

 122	6.832000000000011e-01
	6.832000000000011e-01
	3.348392426508872e-01
	3.000031669159759e-01
	3.300000000000000e+00
	-3.483607573491139e-05
	-2.999996833084024e+00

 123	6.888000000000012e-01
	6.888000000000012e-01
	3.353483756332593e-01
	3.000032131965852e-01
	3.300000000000000e+00
	-3.534516243667420e-05
	-2.999996786803415e+00

 124	6.944000000000012e-01
	6.944000000000012e-01
	3.358575086156313e-01
	3.000032594771944e-01
	3.300000000000000e+00
	-3.585424913843699e-05
	-2.999996740522806e+00

 125	7.000000000000013e-01
	7.000000000000013e-01
	3.363666415980034e-01
	3.000033057578037e-01
	3.300000000000000e+00
	-3.636333584019979e-05
	-2.999996694242197e+00

 126	7.056000000000013e-01
	7.056000000000013e-01
	3.368757745803754e-01
	3.000033520384129e-01
	3.300000000000000e+00
	-3.687242254196260e-05
	-2.999996647961587e+00

 127	7.112000000000014e-01
	7.112000000000014e-01
	3.373849075627475e-01
	3.000033983190222e-01
	3.300000000000000e+00
	-3.738150924372539e-05
	-2.999996601680978e+00

 128	7.168000000000014e-01
	7.168000000000014e-01
	3.378940405451195e-01
	3.000034445996314e-01
	3.300000000000000e+00
	-3.789059594548819e-05
	-2.999996555400369e+00

 129	7.224000000000015e-01
	7.224000000000015e-01
	3.384031735274916e-01
	3.000034908802406e-01
	3.300000000000000e+00
	-3.839968264725099e-05
	-2.999996509119760e+00

 130	7.280000000000015e-01
	7.280000000000015e-01
	3.389123065098636e-01
	3.000035371608499e-01
	3.300000000000000e+00
	-3.890876934901379e-05
	-2.999996462839150e+00

 131	7.336000000000016e-01
	7.336000000000016e-01
	3.394214394922357e-01
	3.000035834414592e-01
	3.300000000000000e+00
	-3.941785605077660e-05
	-2.999996416558541e+00

 132	7.392000000000016e-01
	7.392000000000016e-01
	3.399305724746077e-01
	3.000036297220684e-01
	3.300000000000000e+00
	-3.992694275253940e-05
	-2.999996370277932e+00

 133	7.448000000000017e-01
	7.448000000000017e-01
	3.404397054569798e-01
	3.000036760026777e-01
	3.300000000000000e+00
	-4.043602945430218e-05
	-2.999996323997323e+00

 134	7.504000000000017e-01
	7.504000000000017e-01
	3.409488384393519e-01
	3.000037222832869e-01
	3.300000000000000e+00
	-4.094511615606499e-05
	-2.999996277716714e+00

 135	7.560000000000018e-01
	7.560000000000018e-01
	3.414579714217238e-01
	3.000037685638962e-01
	3.300000000000000e+00
	-4.145420285782780e-05
	-2.999996231436104e+00

 136	7.616000000000018e-01
	7.616000000000018e-01
	3.419671044040959e-01
	3.000038148445054e-01
	3.300000000000000e+00
	-4.196328955959060e-05
	-2.999996185155495e+00

 137	7.672000000000019e-01
	7.672000000000019e-01
	3.424762373864680e-01
	3.000038611251147e-01
	3.300000000000000e+00
	-4.247237626135339e-05
	-2.999996138874886e+00

 138	7.728000000000019e-01
	7.728000000000019e-01
	3.429853703688401e-01
	3.000039074057239e-01
	3.300000000000000e+00
	-4.298146296311619e-05
	-2.999996092594277e+00

 139	7.784000000000020e-01
	7.784000000000020e-01
	3.434945033512121e-01
	3.000039536863332e-01
	3.300000000000000e+00
	-4.349054966487899e-05
	-2.999996046313667e+00

 140	7.840000000000020e-01
	7.840000000000020e-01
	3.440036363335842e-01
	3.000039999669424e-01
	3.300000000000000e+00
	-4.399963636664179e-05
	-2.999996000033058e+00

 141	7.896000000000021e-01
	7.896000000000021e-01
	3.445127693159562e-01
	3.000040462475517e-01
	3.300000000000000e+00
	-4.450872306840458e-05
	-2.999995953752449e+00

 142	7.952000000000021e-01
	7.952000000000021e-01
	3.450219022983282e-01
	3.000040925281610e-01
	3.300000000000000e+00
	-4.501780977016739e-05
	-2.999995907471839e+00

 143	8.008000000000022e-01
	8.008000000000022e-01
	3.455310352807003e-01
	3.000041388087702e-01
	3.300000000000000e+00
	-4.552689647193020e-05
	-2.999995861191230e+00

 144	8.064000000000022e-01
	8.064000000000022e-01
	3.460401682630724e-01
	3.000041850893794e-01
	3.300000000000000e+00
	-4.603598317369299e-05
	-2.999995814910621e+00

 145	8.120000000000023e-01
	8.120000000000023e-01
	3.465493012454444e-01
	3.000042313699887e-01
	3.300000000000000e+00
	-4.654506987545578e-05
	-2.999995768630011e+00

 146	8.176000000000023e-01
	8.176000000000023e-01
	3.470584342278165e-01
	3.000042776505980e-01
	3.300000000000000e+00
	-4.705415657721858e-05
	-2.999995722349402e+00

 147	8.232000000000024e-01
	8.232000000000024e-01
	3.475675672101885e-01
	3.000043239312072e-01
	3.300000000000000e+00
	-4.756324327898139e-05
	-2.999995676068793e+00

 148	8.288000000000024e-01
	8.288000000000024e-01
	3.480767001925605e-01
	3.000043702118164e-01
	3.300000000000000e+00
	-4.807232998074420e-05
	-2.999995629788184e+00

 149	8.344000000000025e-01
	8.344000000000025e-01
	3.485858331749326e-01
	3.000044164924257e-01
	3.300000000000000e+00
	-4.858141668250699e-05
	-2.999995583507574e+00

 150	8.400000000000025e-01
	8.400000000000025e-01
	3.490949661573047e-01
	3.000044627730349e-01
	3.300000000000000e+00
	-4.909050338426979e-05
	-2.999995537226965e+00

 151	8.456000000000026e-01
	8.456000000000026e-01
	3.496040991396767e-01
	3.000045090536442e-01
	3.300000000000000e+00
	-4.959959008603259e-05
	-2.999995490946356e+00

 152	8.512000000000026e-01
	8.512000000000026e-01
	3.501132321220488e-01
	3.000045553342535e-01
	3.300000000000000e+00
	-5.010867678779539e-05
	-2.999995444665747e+00

 153	8.568000000000027e-01
	8.568000000000027e-01
	3.506223651044208e-01
	3.000046016148627e-01
	3.300000000000000e+00
	-5.061776348955820e-05
	-2.999995398385138e+00

 154	8.624000000000027e-01
	8.624000000000027e-01
	3.511314980867929e-01
	3.000046478954719e-01
	3.300000000000000e+00
	-5.112685019132098e-05
	-2.999995352104528e+00

 155	8.680000000000028e-01
	8.680000000000028e-01
	3.516406310691649e-01
	3.000046941760812e-01
	3.300000000000000e+00
	-5.163593689308379e-05
	-2.999995305823919e+00

 156	8.736000000000028e-01
	8.736000000000028e-01
	3.521497640515370e-01
	3.000047404566905e-01
	3.300000000000000e+00
	-5.214502359484659e-05
	-2.999995259543310e+00

 157	8.792000000000029e-01
	8.792000000000029e-01
	3.526588970339090e-01
	3.000047867372997e-01
	3.300000000000000e+00
	-5.265411029660939e-05
	-2.999995213262701e+00

 158	8.848000000000029e-01
	8.848000000000029e-01
	3.531680300162811e-01
	3.000048330179090e-01
	3.300000000000000e+00
	-5.316319699837218e-05
	-2.999995166982091e+00

 159	8.904000000000030e-01
	8.904000000000030e-01
	3.536771629986531e-01
	3.000048792985182e-01
	3.300000000000000e+00
	-5.367228370013499e-05
	-2.999995120701482e+00

 160	8.960000000000030e-01
	8.960000000000030e-01
	3.541862959810251e-01
	3.000049255791274e-01
	3.300000000000000e+00
	-5.418137040189779e-05
	-2.999995074420873e+00

 161	9.016000000000031e-01
	9.016000000000031e-01
	3.546954289633972e-01
	3.000049718597367e-01
	3.300000000000000e+00
	-5.469045710366059e-05
	-2.999995028140264e+00

 162	9.072000000000031e-01
	9.072000000000031e-01
	3.552045619457693e-01
	3.000050181403460e-01
	3.300000000000000e+00
	-5.519954380542338e-05
	-2.999994981859654e+00

 163	9.128000000000032e-01
	9.128000000000032e-01
	3.557136949281413e-01
	3.000050644209552e-01
	3.300000000000000e+00
	-5.570863050718618e-05
	-2.999994935579045e+00

 164	9.184000000000032e-01
	9.184000000000032e-01
	3.562228279105134e-01
	3.000051107015644e-01
	3.300000000000000e+00
	-5.621771720894899e-05
	-2.999994889298436e+00

 165	9.240000000000033e-01
	9.240000000000033e-01
	3.567319608928854e-01
	3.000051569821737e-01
	3.300000000000000e+00
	-5.672680391071179e-05
	-2.999994843017827e+00

 166	9.296000000000033e-01
	9.296000000000033e-01
	3.572410938752575e-01
	3.000052032627830e-01
	3.300000000000000e+00
	-5.723589061247458e-05
	-2.999994796737217e+00

 167	9.352000000000034e-01
	9.352000000000034e-01
	3.577502268576295e-01
	3.000052495433922e-01
	3.300000000000000e+00
	-5.774497731423739e-05
	-2.999994750456608e+00

 168	9.408000000000034e-01
	9.408000000000034e-01
	3.582593598400016e-01
	3.000052958240015e-01
	3.300000000000000e+00
	-5.825406401600018e-05
	-2.999994704175999e+00

 169	9.464000000000035e-01
	9.464000000000035e-01
	3.587684928223737e-01
	3.000053421046107e-01
	3.300000000000000e+00
	-5.876315071776298e-05
	-2.999994657895390e+00

 170	9.520000000000035e-01
	9.520000000000035e-01
	3.592776258047457e-01
	3.000053883852200e-01
	3.300000000000000e+00
	-5.927223741952578e-05
	-2.999994611614780e+00

 171	9.576000000000036e-01
	9.576000000000036e-01
	3.597867587871177e-01
	3.000054346658292e-01
	3.300000000000000e+00
	-5.978132412128859e-05
	-2.999994565334171e+00

 172	9.632000000000036e-01
	9.632000000000036e-01
	3.602958917694898e-01
	3.000054809464385e-01
	3.300000000000000e+00
	-6.029041082305139e-05
	-2.999994519053562e+00

 173	9.688000000000037e-01
	9.688000000000037e-01
	3.608050247518618e-01
	3.000055272270477e-01
	3.300000000000000e+00
	-6.079949752481419e-05
	-2.999994472772952e+00

 174	9.744000000000037e-01
	9.744000000000037e-01
	3.613141577342339e-01
	3.000055735076570e-01
	3.300000000000000e+00
	-6.130858422657699e-05
	-2.999994426492343e+00

 175	9.800000000000038e-01
	9.800000000000038e-01
	3.618232907166059e-01
	3.000056197882662e-01
	3.300000000000000e+00
	-6.181767092833978e-05
	-2.999994380211734e+00

 176	9.856000000000038e-01
	9.856000000000038e-01
	3.623324236989780e-01
	3.000056660688755e-01
	3.300000000000000e+00
	-6.232675763010259e-05
	-2.999994333931125e+00

 177	9.912000000000039e-01
	9.912000000000039e-01
	3.628415566813500e-01
	3.000057123494847e-01
	3.300000000000000e+00